 &FCI NORB= 26,NELEC=10,MS2= 0,
  ORBSYM=1,1,1,1,1,1,2,2,2,3,3,3,4,5,5,5,5,5,5,6,6,6,7,7,7,8,
  ISYM=1
 &END
  0.80506678367482042979E+00   1   1   1   1
  0.14109689411422340899E+00   2   1   1   1
  0.67385762615880223647E-01   2   1   2   1
  0.56418952158574553479E+00   2   2   1   1
  0.32078314552489071987E-01   2   2   2   1
  0.56124369176588762009E+00   2   2   2   2
 -0.87737843165822490543E-01   3   1   1   1
 -0.40419981086742065579E-01   3   1   2   1
 -0.45395710625435757579E-01   3   1   2   2
  0.39495056640824581506E-01   3   1   3   1
 -0.13012030034410601576E+00   3   2   1   1
 -0.39739007567537440457E-01   3   2   2   1
 -0.64280934708927997545E-01   3   2   2   2
  0.24082560181031727187E-01   3   2   3   1
  0.47648030074363328934E-01   3   2   3   2
  0.46929757536059690803E+00   3   3   1   1
  0.38821169400913214942E-01   3   3   2   1
  0.41309130691690959525E+00   3   3   2   2
 -0.26121500332015046286E-01   3   3   3   1
 -0.38427936439587973005E-01   3   3   3   2
  0.37269350888168434333E+00   3   3   3   3
 -0.82778767677774950373E-01   4   1   1   1
 -0.20292567026910495603E-01   4   1   2   1
 -0.61953452389494595431E-01   4   1   2   2
  0.23719539240812874403E-01   4   1   3   1
  0.23187421566295097347E-01   4   1   3   2
 -0.26490941512809569602E-01   4   1   3   3
  0.24685980509041013931E-01   4   1   4   1
  0.50731826246415492876E-01   4   2   1   1
 -0.12059462376742040302E-01   4   2   2   1
  0.92230810392809170484E-01   4   2   2   2
 -0.15777827429920635027E-02   4   2   3   1
 -0.19402532547965988668E-01   4   2   3   2
  0.25641292535065404734E-01   4   2   3   3
 -0.20578989928902169382E-01   4   2   4   1
  0.54472304172517312104E-01   4   2   4   2
  0.61527794048466713517E-01   4   3   1   1
  0.23068534317906994047E-01   4   3   2   1
 -0.14561755168904671510E-02   4   3   2   2
  0.15693830817422316226E-02   4   3   3   1
 -0.21314969549432453977E-01   4   3   3   2
  0.17337571780487653211E-01   4   3   3   3
  0.31538428510731603138E-02   4   3   4   1
 -0.95824770529044020484E-02   4   3   4   2
  0.35052973342055863959E-01   4   3   4   3
  0.46803552584802138314E+00   4   4   1   1
  0.14626635222879047493E-01   4   4   2   1
  0.45648437749458031787E+00   4   4   2   2
 -0.14941409541136319028E-01   4   4   3   1
 -0.46467106637300512051E-01   4   4   3   2
  0.37049021352095301562E+00   4   4   3   3
 -0.34072803530293960250E-01   4   4   4   1
  0.61926428665702304421E-01   4   4   4   2
  0.10946207219056203197E-01   4   4   4   3
  0.40645128726520252105E+00   4   4   4   4
  0.18304301237399221518E-16   5   1   1   1
  0.73158227552339303989E-17   5   1   2   1
  0.77318789538625893248E-17   5   1   2   2
 -0.60836987913639004426E-17   5   1   3   1
 -0.64674246484339263895E-17   5   1   3   2
  0.63874151134846700867E-17   5   1   3   3
 -0.25292686972815507731E-17   5   1   4   1
 -0.12260326527156178758E-17   5   1   4   2
  0.27774004086985554873E-17   5   1   4   3
  0.30775778618449754921E-17   5   1   4   4
  0.37705682831015240042E-01   5   1   5   1
  0.68328993510216793240E-17   5   2   1   1
  0.42281042326017856971E-17   5   2   2   1
  0.93455621601777097685E-18   5   2   2   2
 -0.38324394731275361693E-17   5   2   3   1
 -0.18005899230731951269E-17   5   2   3   2
  0.13892614971926434812E-17   5   2   3   3
 -0.21053144983362358515E-17   5   2   4   1
 -0.12181465504409419823E-18   5   2   4   2
 -0.14012147507783137691E-18   5   2   4   3
  0.23755663502575566689E-18   5   2   4   4
 -0.72808345277277138757E-02   5   2   5   1
  0.11966476287735077280E-01   5   2   5   2
 -0.12611846278810832230E-16   5   3   1   1
 -0.54501588281261526590E-17   5   3   2   1
 -0.50654482837410769450E-17   5   3   2   2
  0.34841060013360876775E-17   5   3   3   1
  0.29985240197379239501E-17   5   3   3   2
 -0.34146897898499025992E-17   5   3   3   3
  0.25288072722800727053E-17   5   3   4   1
 -0.10612769625041588404E-17   5   3   4   2
 -0.12489644578173806912E-17   5   3   4   3
 -0.27679534788904525314E-17   5   3   4   4
  0.15332146404042946292E-01   5   3   5   1
 -0.42949479189970038440E-02   5   3   5   2
  0.11209104513265889108E-01   5   3   5   3
  0.38130095700300695585E-17   5   4   1   1
 -0.85849972632229257399E-18   5   4   2   1
  0.35917110132868211512E-17   5   4   2   2
  0.68297058379308143601E-18   5   4   3   1
 -0.14338169167209441742E-17   5   4   3   2
  0.19348775747911642257E-17   5   4   3   3
 -0.67720238043120789856E-18   5   4   4   1
  0.13188384043923007885E-17   5   4   4   2
  0.78462692272521137959E-18   5   4   4   3
  0.35313547869309528399E-17   5   4   4   4
  0.59558003365527013157E-02   5   4   5   1
 -0.42737558986090401101E-03   5   4   5   2
  0.66002251459160131419E-02   5   4   5   3
  0.89129811713331424938E-02   5   4   5   4
  0.59473107645939948807E+00   5   5   1   1
  0.45686402402315841320E-01   5   5   2   1
  0.48611485034208362643E+00   5   5   2   2
 -0.17234917967848983889E-01   5   5   3   1
 -0.70609149544439225865E-01   5   5   3   2
  0.40960511421349599104E+00   5   5   3   3
 -0.39449788449253175848E-01   5   5   4   1
  0.49587263806891490603E-01   5   5   4   2
  0.42558114752097142564E-01   5   5   4   3
  0.43290747536242440985E+00   5   5   4   4
  0.26039413040003785253E-17   5   5   5   1
  0.16813897640461269443E-17   5   5   5   2
 -0.63634045268847514434E-17   5   5   5   3
  0.45119003421743971172E-17   5   5   5   4
  0.55056434912532825621E+00   5   5   5   5
  0.50121873244937852065E-01   6   1   1   1
  0.35939460535006031994E-01   6   1   2   1
  0.10771829842422938825E-01   6   1   2   2
 -0.23196858487220011619E-01   6   1   3   1
 -0.12071916893589756253E-01   6   1   3   2
  0.15111751996946188453E-01   6   1   3   3
 -0.52454737309176185933E-02   6   1   4   1
 -0.10225672557260007123E-01   6   1   4   2
  0.98903904633382798417E-02   6   1   4   3
 -0.26519360789334822832E-02   6   1   4   4
  0.41567665080775661664E-17   6   1   5   1
  0.30259352012915429983E-17   6   1   5   2
 -0.33052070984523050022E-17   6   1   5   3
 -0.17703460105929459632E-17   6   1   5   4
 -0.35021034056559423309E-02   6   1   5   5
  0.39392733967747554924E-01   6   1   6   1
  0.72459655421877169901E-01   6   2   1   1
  0.38178423803213484833E-01   6   2   2   1
 -0.21633599158891889114E-01   6   2   2   2
 -0.13845096920403691942E-01   6   2   3   1
 -0.24648363509159477991E-01   6   2   3   2
  0.95528605624429722282E-02   6   2   3   3
 -0.48530711480339189245E-02   6   2   4   1
 -0.26043698708366858768E-01   6   2   4   2
  0.23023831830257891762E-01   6   2   4   3
 -0.90771779383694399523E-02   6   2   4   4
  0.54087841757719101480E-17   6   2   5   1
  0.83727900332183589035E-18   6   2   5   2
 -0.15755960338513772453E-17   6   2   5   3
  0.21257142854987759388E-18   6   2   5   4
  0.33249230255488197716E-01   6   2   5   5
  0.11392464617368008861E-01   6   2   6   1
  0.55056401364097694306E-01   6   2   6   2
 -0.63547162194969780691E-01   6   3   1   1
 -0.16452186898228859935E-01   6   3   2   1
 -0.45598438181340933406E-01   6   3   2   2
  0.17321464347847020243E-01   6   3   3   1
  0.10025733995125862136E-01   6   3   3   2
 -0.25368858038394760668E-01   6   3   3   3
  0.13058445334567701790E-01   6   3   4   1
 -0.40471508554291366067E-02   6   3   4   2
 -0.16385522491386278476E-03   6   3   4   3
 -0.21666930833006331492E-01   6   3   4   4
 -0.41546919135761794259E-17   6   3   5   1
 -0.80219032165246231625E-18   6   3   5   2
  0.90046289775139038551E-18   6   3   5   3
 -0.52245143223952672921E-18   6   3   5   4
 -0.36454087741253998756E-01   6   3   5   5
 -0.10725930914492545765E-01   6   3   6   1
 -0.57021011522599123617E-02   6   3   6   2
  0.17860469224563378654E-01   6   3   6   3
  0.63492354394584053778E-05   6   4   1   1
  0.19485514926562644972E-02   6   4   2   1
 -0.28913203114981876618E-01   6   4   2   2
  0.75911909887965102126E-02   6   4   3   1
 -0.78563726834819311295E-03   6   4   3   2
 -0.37070755353331135556E-02   6   4   3   3
  0.53098882900092601173E-02   6   4   4   1
 -0.13660633310269778770E-01   6   4   4   2
  0.11933577147240616301E-01   6   4   4   3
 -0.10375969681745186857E-01   6   4   4   4
 -0.15836120706685855117E-17   6   4   5   1
 -0.16192945583762877626E-18   6   4   5   2
 -0.35164689249873413659E-18   6   4   5   3
 -0.25375095004421056566E-19   6   4   5   4
  0.53383637028871534780E-02   6   4   5   5
 -0.77878509994541659373E-02   6   4   6   1
  0.17377794190922866285E-01   6   4   6   2
  0.53975617973068138258E-02   6   4   6   3
  0.16664265121210792425E-01   6   4   6   4
  0.67891360636193159777E-17   6   5   1   1
  0.39223287354813891930E-17   6   5   2   1
  0.23833507825345906201E-17   6   5   2   2
 -0.34641242087863926721E-17   6   5   3   1
 -0.10421328798053045647E-17   6   5   3   2
  0.15310084098607888962E-17   6   5   3   3
 -0.22746815089075505018E-17   6   5   4   1
  0.39960847969132398640E-18   6   5   4   2
 -0.34661177912113792400E-18   6   5   4   3
  0.84332126207170809056E-18   6   5   4   4
 -0.14580023709458926617E-01   6   5   5   1
  0.10001175403086362201E-01   6   5   5   2
 -0.66535533857709520597E-02   6   5   5   3
  0.20973677659445085484E-03   6   5   5   4
  0.28584821305409539011E-17   6   5   5   5
  0.34574023997358876883E-17   6   5   6   1
 -0.63308607093366349240E-18   6   5   6   2
 -0.10374878233724216405E-17   6   5   6   3
 -0.56341963914547653364E-18   6   5   6   4
  0.17298895614574840568E-01   6   5   6   5
  0.58867212100160060118E+00   6   6   1   1
  0.46335489512400726553E-01   6   6   2   1
  0.53113544523392686170E+00   6   6   2   2
 -0.40467075132585572650E-01   6   6   3   1
 -0.67053814952958729068E-01   6   6   3   2
  0.41469763945826104701E+00   6   6   3   3
 -0.55829935079793058250E-01   6   6   4   1
  0.71295923910535963230E-01   6   6   4   2
  0.20579034922089456394E-01   6   6   4   3
  0.44269023921661754262E+00   6   6   4   4
  0.94441523900147109759E-17   6   6   5   1
  0.45774262050906847433E-18   6   6   5   2
 -0.53250898439821644780E-17   6   6   5   3
  0.36189257634085671371E-17   6   6   5   4
  0.50517642968222975508E+00   6   6   5   5
  0.13860711525321978144E-01   6   6   6   1
 -0.11819065376707793558E-02   6   6   6   2
 -0.48682916807863990671E-01   6   6   6   3
 -0.16845623168946777248E-01   6   6   6   4
  0.15984130213609085897E-17   6   6   6   5
  0.53588951207379309505E+00   6   6   6   6
  0.62451663726357520279E+00   7   7   1   1
  0.61086057356397660545E-01   7   7   2   1
  0.50101457028039220187E+00   7   7   2   2
 -0.32488345921579564468E-01   7   7   3   1
 -0.83088149213960932338E-01   7   7   3   2
  0.41616102259508230832E+00   7   7   3   3
 -0.51480215850542854206E-01   7   7   4   1
  0.56982721186318530115E-01   7   7   4   2
  0.41261586812232797783E-01   7   7   4   3
  0.44053792008800612967E+00   7   7   4   4
  0.28402087117573422692E-01   7   7   5   1
 -0.74940014342105096962E-02   7   7   5   2
  0.12083245249207428401E-01   7   7   5   3
  0.43169647690938046589E-02   7   7   5   4
  0.53518182847562245641E+00   7   7   5   5
  0.31097162769455621856E-02   7   7   6   1
  0.33850065215261501694E-01   7   7   6   2
 -0.37293359793667268942E-01   7   7   6   3
  0.47895014230877608341E-02   7   7   6   4
 -0.12379293784553989030E-01   7   7   6   5
  0.51458135565376950105E+00   7   7   6   6
  0.56900659821648247316E+00   7   7   7   7
 -0.15664787832255103184E+00   8   7   1   1
 -0.35603492711057449505E-01   8   7   2   1
 -0.10256620601366124579E+00   8   7   2   2
  0.31669222240724291539E-01   8   7   3   1
  0.40424326587882475348E-01   8   7   3   2
 -0.53166075693367044475E-01   8   7   3   3
  0.37417217225424986848E-01   8   7   4   1
 -0.32488831264354395278E-01   8   7   4   2
 -0.12524152633125312795E-02   8   7   4   3
 -0.63696106171542005159E-01   8   7   4   4
 -0.49714864011714959835E-02   8   7   5   1
 -0.84150888272812901687E-03   8   7   5   2
  0.19959177859862624500E-02   8   7   5   3
  0.59254180096651436899E-02   8   7   5   4
 -0.90119925278009035963E-01   8   7   5   5
 -0.19146483767083777305E-02   8   7   6   1
 -0.13556017992747831924E-01   8   7   6   2
  0.18646499959521480039E-01   8   7   6   3
  0.23480016439672846129E-02   8   7   6   4
  0.31720203221959554669E-02   8   7   6   5
 -0.99617326501950570483E-01   8   7   6   6
 -0.11208573342253658200E+00   8   7   7   7
  0.76085805153544835977E-01   8   7   8   7
  0.50734857869838712041E+00   8   8   1   1
  0.41456952872204341776E-01   8   8   2   1
  0.42798870215575285370E+00   8   8   2   2
 -0.24419866933451550572E-01   8   8   3   1
 -0.60972241292416642922E-01   8   8   3   2
  0.36939300286821968866E+00   8   8   3   3
 -0.36124835607436178719E-01   8   8   4   1
  0.40623270548110324007E-01   8   8   4   2
  0.30987964958715141783E-01   8   8   4   3
  0.39055087124703496970E+00   8   8   4   4
  0.16733025609913618204E-01   8   8   5   1
 -0.57006049306838066718E-02   8   8   5   2
  0.79935283739117242441E-02   8   8   5   3
  0.46323856630896588504E-02   8   8   5   4
  0.44148291380523796423E+00   8   8   5   5
  0.15451431210853350251E-02   8   8   6   1
  0.19924935261328741154E-01   8   8   6   2
 -0.21936564075237141580E-01   8   8   6   3
  0.54837761919283023460E-02   8   8   6   4
 -0.69301199447486822730E-02   8   8   6   5
  0.43325341855536936286E+00   8   8   6   6
  0.47156819165166691254E+00   8   8   7   7
 -0.72607329311539958727E-01   8   8   8   7
  0.42164211126324580015E+00   8   8   8   8
  0.79593971541978350559E-01   9   7   1   1
  0.45485709096988111155E-01   9   7   2   1
 -0.18975841015760108732E-01   9   7   2   2
 -0.95702855298122196936E-02   9   7   3   1
 -0.18105706385509276468E-01   9   7   3   2
  0.18496523807343182716E-01   9   7   3   3
  0.23814370697196954318E-02   9   7   4   1
 -0.24160918405502419815E-01   9   7   4   2
  0.29799460935624348668E-01   9   7   4   3
 -0.72544329655334048590E-02   9   7   4   4
  0.86750924921273099566E-02   9   7   5   1
  0.72739847820297107855E-02   9   7   5   2
  0.38978639120103692438E-02   9   7   5   3
  0.45753066341733851508E-02   9   7   5   4
  0.29935573974502426714E-01   9   7   5   5
  0.25865992082673365526E-01   9   7   6   1
  0.31243229464989002997E-01   9   7   6   2
 -0.27750631748793153780E-02   9   7   6   3
  0.92837874231930725410E-02   9   7   6   4
  0.41352830828569721658E-02   9   7   6   5
  0.79210929012216435563E-02   9   7   6   6
  0.36986880538245600625E-01   9   7   7   7
 -0.72778702136325566091E-02   9   7   8   7
  0.18595100217777365409E-01   9   7   8   8
  0.66460276803454745864E-01   9   7   9   7
 -0.24780284838138589426E-01   9   8   1   1
 -0.17500408362417743668E-01   9   8   2   1
  0.47001117287569478889E-02   9   8   2   2
  0.98756497230503351159E-02   9   8   3   1
  0.22974853896247371399E-03   9   8   3   2
 -0.47884930324241289229E-02   9   8   3   3
  0.44654366316294880068E-04   9   8   4   1
  0.15129876527281520965E-01   9   8   4   2
 -0.38078885094300074510E-02   9   8   4   3
  0.89344908458591550809E-02   9   8   4   4
 -0.19041455623062734752E-02   9   8   5   1
 -0.19856003904888423414E-02   9   8   5   2
  0.13182315499915475340E-02   9   8   5   3
 -0.77924352492825688793E-03   9   8   5   4
 -0.41258833232506002264E-02   9   8   5   5
 -0.13394981017772644716E-01   9   8   6   1
 -0.10194544229421800829E-01   9   8   6   2
  0.63559155894669806114E-02   9   8   6   3
  0.11835808931271712269E-02   9   8   6   4
 -0.14102787845794971262E-02   9   8   6   5
 -0.20942382208788707515E-02   9   8   6   6
 -0.27227047978779801013E-02   9   8   7   7
  0.34719719180294791698E-03   9   8   8   7
  0.34145274717011109972E-02   9   8   8   8
 -0.19479241309915990010E-01   9   8   9   7
  0.15109411180741164765E-01   9   8   9   8
  0.61165958609459536444E+00   9   9   1   1
  0.50585497083022325226E-01   9   9   2   1
  0.53379064506668860712E+00   9   9   2   2
 -0.34770117771886432934E-01   9   9   3   1
 -0.70406362026014163158E-01   9   9   3   2
  0.41967202436012546185E+00   9   9   3   3
 -0.52665981667661454502E-01   9   9   4   1
  0.69224674010783804334E-01   9   9   4   2
  0.26399176140875169061E-01   9   9   4   3
  0.44919169453740503961E+00   9   9   4   4
  0.25574818814146936530E-01   9   9   5   1
 -0.85727249786852373348E-02   9   9   5   2
  0.89320248240944040419E-02   9   9   5   3
  0.26581137681481866938E-02   9   9   5   4
  0.52861981741206554020E+00   9   9   5   5
  0.16096390756488276885E-01   9   9   6   1
  0.13089597715037717962E-01   9   9   6   2
 -0.43926672211776846000E-01   9   9   6   3
 -0.10035871804475404723E-01   9   9   6   4
 -0.68081999687430528115E-02   9   9   6   5
  0.52908229319944710678E+00   9   9   6   6
  0.55463543180858687620E+00   9   9   7   7
 -0.10553441978163841108E+00   9   9   8   7
  0.45422045316971076945E+00   9   9   8   8
  0.22567033221811805266E-01   9   9   9   7
 -0.75036738325484630963E-02   9   9   9   8
  0.58399055362725149632E+00   9   9   9   9
  0.62451663726357564688E+00  10  10   1   1
  0.61086057356397743812E-01  10  10   2   1
  0.50101457028039264596E+00  10  10   2   2
 -0.32488345921580064068E-01  10  10   3   1
 -0.83088149213961431938E-01  10  10   3   2
  0.41616102259508341854E+00  10  10   3   3
 -0.51480215850543298295E-01  10  10   4   1
  0.56982721186318752160E-01  10  10   4   2
  0.41261586812233908006E-01  10  10   4   3
  0.44053792008800746194E+00  10  10   4   4
 -0.28402087117573412284E-01  10  10   5   1
  0.74940014342105122983E-02  10  10   5   2
 -0.12083245249207438810E-01  10  10   5   3
 -0.43169647690937682297E-02  10  10   5   4
  0.53518182847562267845E+00  10  10   5   5
  0.31097162769451180964E-02  10  10   6   1
  0.33850065215261154750E-01  10  10   6   2
 -0.37293359793666297497E-01  10  10   6   3
  0.47895014230880939010E-02  10  10   6   4
  0.12379293784554008112E-01  10  10   6   5
  0.51458135565377061127E+00  10  10   6   6
  0.52337324342057978122E+00  10  10   7   7
 -0.10464919728555688305E+00  10  10   8   7
  0.44045679903627232843E+00  10  10   8   8
  0.28081494218881369873E-01  10  10   9   7
 -0.25387088645836691780E-02  10  10   9   8
  0.51564112172806519929E+00  10  10   9   9
  0.56900659821648302827E+00  10  10  10  10
 -0.15664787832255117062E+00  11  10   1   1
 -0.35603492711057602160E-01  11  10   2   1
 -0.10256620601366121803E+00  11  10   2   2
  0.31669222240724319295E-01  11  10   3   1
  0.40424326587882558615E-01  11  10   3   2
 -0.53166075693367308153E-01  11  10   3   3
  0.37417217225424931337E-01  11  10   4   1
 -0.32488831264354367523E-01  11  10   4   2
 -0.12524152633122953571E-02  11  10   4   3
 -0.63696106171543948049E-01  11  10   4   4
  0.49714864011715029224E-02  11  10   5   1
  0.84150888272813010108E-03  11  10   5   2
 -0.19959177859862516080E-02  11  10   5   3
 -0.59254180096651220058E-02  11  10   5   4
 -0.90119925278009271885E-01  11  10   5   5
 -0.19146483767083222194E-02  11  10   6   1
 -0.13556017992747755596E-01  11  10   6   2
  0.18646499959521275341E-01  11  10   6   3
  0.23480016439665074568E-02  11  10   6   4
 -0.31720203221959524312E-02  11  10   6   5
 -0.99617326501951791728E-01  11  10   6   6
 -0.10464919728555692469E+00  11  10   7   7
  0.59707737209106992449E-01  11  10   8   7
 -0.73742316532551283048E-01  11  10   8   8
 -0.72830812939015630858E-02  11  10   9   7
 -0.13712829009477570802E-03  11  10   9   8
 -0.99110562968239820925E-01  11  10   9   9
 -0.11208573342253691507E+00  11  10  10  10
  0.76085805153544933122E-01  11  10  11  10
  0.50734857869838645428E+00  11  11   1   1
  0.41456952872204230753E-01  11  11   2   1
  0.42798870215575246512E+00  11  11   2   2
 -0.24419866933451661595E-01  11  11   3   1
 -0.60972241292416851088E-01  11  11   3   2
  0.36939300286822024377E+00  11  11   3   3
 -0.36124835607435179519E-01  11  11   4   1
  0.40623270548111212186E-01  11  11   4   2
  0.30987964958714586672E-01  11  11   4   3
  0.39055087124703374846E+00  11  11   4   4
 -0.16733025609913580040E-01  11  11   5   1
  0.57006049306838075391E-02  11  11   5   2
 -0.79935283739117381219E-02  11  11   5   3
 -0.46323856630897056880E-02  11  11   5   4
  0.44148291380523785321E+00  11  11   5   5
  0.15451431210852240028E-02  11  11   6   1
  0.19924935261328532987E-01  11  11   6   2
 -0.21936564075235753801E-01  11  11   6   3
  0.54837761919268590560E-02  11  11   6   4
  0.69301199447486493133E-02  11  11   6   5
  0.43325341855537036206E+00  11  11   6   6
  0.44045679903627132923E+00  11  11   7   7
 -0.73742316532550200581E-01  11  11   8   7
  0.38902009282858129868E+00  11  11   8   8
  0.15065224891277234631E-01  11  11   9   7
  0.14160371628329782023E-02  11  11   9   8
  0.43149387071925437986E+00  11  11   9   9
  0.47156819165166702357E+00  11  11  10  10
 -0.72607329311540957928E-01  11  11  11  10
  0.42164211126324818713E+00  11  11  11  11
  0.79593971541978073003E-01  12  10   1   1
  0.45485709096988069522E-01  12  10   2   1
 -0.18975841015760365471E-01  12  10   2   2
 -0.95702855298121849992E-02  12  10   3   1
 -0.18105706385509172385E-01  12  10   3   2
  0.18496523807343082102E-01  12  10   3   3
  0.23814370697198897209E-02  12  10   4   1
 -0.24160918405502655737E-01  12  10   4   2
  0.29799460935624202951E-01  12  10   4   3
 -0.72544329655343129867E-02  12  10   4   4
 -0.86750924921272874052E-02  12  10   5   1
 -0.72739847820297151224E-02  12  10   5   2
 -0.38978639120103839889E-02  12  10   5   3
 -0.45753066341734077022E-02  12  10   5   4
  0.29935573974502284467E-01  12  10   5   5
  0.25865992082673448793E-01  12  10   6   1
  0.31243229464989002997E-01  12  10   6   2
 -0.27750631748793969100E-02  12  10   6   3
  0.92837874231926006963E-02  12  10   6   4
 -0.41352830828569964519E-02  12  10   6   5
  0.79210929012210815059E-02  12  10   6   6
  0.28081494218881203340E-01  12  10   7   7
 -0.72830812939014642066E-02  12  10   8   7
  0.15065224891276977892E-01  12  10   8   8
  0.44995685598539725270E-01  12  10   9   7
 -0.14120598336757370084E-01  12  10   9   8
  0.16148402210594499373E-01  12  10   9   9
  0.36986880538245343886E-01  12  10  10  10
 -0.72778702136324507910E-02  12  10  11  10
  0.18595100217777309898E-01  12  10  11  11
  0.66460276803454787498E-01  12  10  12  10
 -0.24780284838138728204E-01  12  11   1   1
 -0.17500408362417719382E-01  12  11   2   1
  0.47001117287567154360E-02  12  11   2   2
  0.98756497230504149132E-02  12  11   3   1
  0.22974853896252922514E-03  12  11   3   2
 -0.47884930324241566785E-02  12  11   3   3
  0.44654366316268859216E-04  12  11   4   1
  0.15129876527281670151E-01  12  11   4   2
 -0.38078885094298079578E-02  12  11   4   3
  0.89344908458586502764E-02  12  11   4   4
  0.19041455623062743426E-02  12  11   5   1
  0.19856003904888293310E-02  12  11   5   2
 -0.13182315499915251995E-02  12  11   5   3
  0.77924352492820939987E-03  12  11   5   4
 -0.41258833232504666527E-02  12  11   5   5
 -0.13394981017772571857E-01  12  11   6   1
 -0.10194544229421672460E-01  12  11   6   2
  0.63559155894670326531E-02  12  11   6   3
  0.11835808931270098976E-02  12  11   6   4
  0.14102787845794925725E-02  12  11   6   5
 -0.20942382208788620779E-02  12  11   6   6
 -0.25387088645837784656E-02  12  11   7   7
 -0.13712829009462825652E-03  12  11   8   7
  0.14160371628331070055E-02  12  11   8   8
 -0.14120598336757349267E-01  12  11   9   7
  0.98363829998610683575E-02  12  11   9   8
 -0.45426618187153454398E-02  12  11   9   9
 -0.27227047978779397690E-02  12  11  10  10
  0.34719719180276837310E-03  12  11  11  10
  0.34145274717016955990E-02  12  11  11  11
 -0.19479241309916024705E-01  12  11  12  10
  0.15109411180741390279E-01  12  11  12  11
  0.61165958609459525341E+00  12  12   1   1
  0.50585497083022366860E-01  12  12   2   1
  0.53379064506668838508E+00  12  12   2   2
 -0.34770117771886599467E-01  12  12   3   1
 -0.70406362026013996624E-01  12  12   3   2
  0.41967202436012579492E+00  12  12   3   3
 -0.52665981667661565524E-01  12  12   4   1
  0.69224674010783693312E-01  12  12   4   2
  0.26399176140876057239E-01  12  12   4   3
  0.44919169453740687148E+00  12  12   4   4
 -0.25574818814146912244E-01  12  12   5   1
  0.85727249786852425389E-02  12  12   5   2
 -0.89320248240943866946E-02  12  12   5   3
 -0.26581137681481723824E-02  12  12   5   4
  0.52861981741206542917E+00  12  12   5   5
  0.16096390756488165863E-01  12  12   6   1
  0.13089597715037801229E-01  12  12   6   2
 -0.43926672211775874555E-01  12  12   6   3
 -0.10035871804475071656E-01  12  12   6   4
  0.68081999687430944448E-02  12  12   6   5
  0.52908229319944777291E+00  12  12   6   6
  0.51564112172806497725E+00  12  12   7   7
 -0.99110562968239890314E-01  12  12   8   7
  0.43149387071925476844E+00  12  12   8   8
  0.16148402210594492434E-01  12  12   9   7
 -0.45426618187149742090E-02  12  12   9   8
  0.53458090748614051080E+00  12  12   9   9
  0.55463543180858709825E+00  12  12  10  10
 -0.10553441978163841108E+00  12  12  11  10
  0.45422045316971004780E+00  12  12  11  11
  0.22567033221811583221E-01  12  12  12  10
 -0.75036738325487406520E-02  12  12  12  11
  0.58399055362725138529E+00  12  12  12  12
  0.59473107645939804478E+00  13  13   1   1
  0.45686402402315695603E-01  13  13   2   1
  0.48611485034208268274E+00  13  13   2   2
 -0.17234917967848539799E-01  13  13   3   1
 -0.70609149544439225865E-01  13  13   3   2
  0.40960511421349410366E+00  13  13   3   3
 -0.39449788449252842781E-01  13  13   4   1
  0.49587263806891490603E-01  13  13   4   2
  0.42558114752095810296E-01  13  13   4   3
  0.43290747536242435434E+00  13  13   4   4
  0.53017537706057999051E-17  13  13   5   1
  0.44232763563152323900E-18  13  13   5   2
 -0.52144723008973506085E-17  13  13   5   3
  0.44892325502512865764E-17  13  13   5   4
  0.52819038201715784453E+00  13  13   5   5
 -0.35021034056552657887E-02  13  13   6   1
  0.33249230255488329555E-01  13  13   6   2
 -0.36454087741255747357E-01  13  13   6   3
  0.53383637028840968952E-02  13  13   6   4
  0.11942352281680012536E-17  13  13   6   5
  0.50517642968222675748E+00  13  13   6   6
  0.53518182847562156823E+00  13  13   7   7
 -0.90119925278009105352E-01  13  13   8   7
  0.44148291380523746463E+00  13  13   8   8
  0.29935573974502333039E-01  13  13   9   7
 -0.41258833232504649180E-02  13  13   9   8
  0.52861981741206465202E+00  13  13   9   9
  0.53518182847562167925E+00  13  13  10  10
 -0.90119925278009216374E-01  13  13  11  10
  0.44148291380523724259E+00  13  13  11  11
  0.29935573974502194261E-01  13  13  12  10
 -0.41258833232504787958E-02  13  13  12  11
  0.52861981741206465202E+00  13  13  12  12
  0.55056434912532636883E+00  13  13  13  13
  0.51741537284681349274E+00  14  14   1   1
  0.45945480960444193275E-02  14  14   2   1
  0.53856837949153668621E+00  14  14   2   2
 -0.22794443248029927496E-01  14  14   3   1
 -0.50734886712442195389E-01  14  14   3   2
  0.39681415936847352910E+00  14  14   3   3
 -0.52444386087872274516E-01  14  14   4   1
  0.92693857597652917768E-01  14  14   4   2
 -0.33636882121800271150E-02  14  14   4   3
  0.45057221663197727368E+00  14  14   4   4
  0.23770830069599133718E-18  14  14   5   1
  0.12839238466528144054E-17  14  14   5   2
 -0.43302708981870072200E-17  14  14   5   3
  0.41890022656320945378E-17  14  14   5   4
  0.48410185885258250060E+00  14  14   5   5
 -0.12060147673746524077E-01  14  14   6   1
 -0.25820397022568830625E-01  14  14   6   2
 -0.37168475344606433097E-01  14  14   6   3
 -0.21190038882397010944E-01  14  14   6   4
  0.28885253979768706074E-17  14  14   6   5
  0.51208497579116774023E+00  14  14   6   6
  0.49016158861168990235E+00  14  14   7   7
 -0.91086261783221433852E-01  14  14   8   7
  0.41934322624889680542E+00  14  14   8   8
 -0.31784855744974138680E-01  14  14   9   7
  0.12244015327990895314E-01  14  14   9   8
  0.51717992560469683294E+00  14  14   9   9
  0.49016158861169017991E+00  14  14  10  10
 -0.91086261783221711408E-01  14  14  11  10
  0.41934322624889658337E+00  14  14  11  11
 -0.31784855744974346847E-01  14  14  12  10
  0.12244015327990825925E-01  14  14  12  11
  0.51717992560469683294E+00  14  14  12  12
  0.48410185885258155691E+00  14  14  13  13
  0.53437398038423833402E+00  14  14  14  14
  0.98412626158978999680E-01  15  14   1   1
  0.18566020428724981650E-01  15  14   2   1
  0.49781865644077535893E-01  15  14   2   2
 -0.58804652858713765684E-02  15  14   3   1
 -0.34760031194296499291E-01  15  14   3   2
  0.27850264011067472902E-01  15  14   3   3
 -0.15617742071368151402E-01  15  14   4   1
  0.19308170693710005605E-01  15  14   4   2
  0.19970478509102884690E-01  15  14   4   3
  0.43004776621720690322E-01  15  14   4   4
  0.99889592643005849118E-18  15  14   5   1
  0.65210498814436395918E-18  15  14   5   2
 -0.24114020770404309471E-17  15  14   5   3
  0.16318396066025659223E-17  15  14   5   4
  0.73684170141738281057E-01  15  14   5   5
 -0.45606436455374460559E-02  15  14   6   1
  0.19761999276740438436E-01  15  14   6   2
 -0.49952261776299751450E-02  15  14   6   3
  0.63521026361693794238E-02  15  14   6   4
  0.58295615037704551533E-18  15  14   6   5
  0.57264407028084114704E-01  15  14   6   6
  0.78270379641027121309E-01  15  14   7   7
 -0.32216569406493339445E-01  15  14   8   7
  0.54926343334244606686E-01  15  14   8   8
  0.10686606499174969992E-01  15  14   9   7
  0.37198313821375384586E-02  15  14   9   8
  0.63925203141526762418E-01  15  14   9   9
  0.78270379641027218454E-01  15  14  10  10
 -0.32216569406493374139E-01  15  14  11  10
  0.54926343334244551175E-01  15  14  11  11
  0.10686606499174911011E-01  15  14  12  10
  0.37198313821375419280E-02  15  14  12  11
  0.63925203141526776296E-01  15  14  12  12
  0.73684170141737684312E-01  15  14  13  13