 &FCI NORB= 10,NELEC=10,MS2= 0,
  ORBSYM=1,1,1,1,1,1,1,1,1,1,
  ISYM=1
 &END
  1.00000000000000000000E+00   1   1   1   1
  1.00000000000000000000E+00   2   2   2   2
  1.00000000000000000000E+00   3   3   3   3
  1.00000000000000000000E+00   4   4   4   4
  1.00000000000000000000E+00   5   5   5   5
  1.00000000000000000000E+00   6   6   6   6
  1.00000000000000000000E+00   7   7   7   7
  1.00000000000000000000E+00   8   8   8   8
  1.00000000000000000000E+00   9   9   9   9
  1.00000000000000000000E+00  10  10  10  10
  1.00000000000000000000E+00   2   1   0   0
  1.00000000000000000000E+00   3   1   0   0
  1.00000000000000000000E+00   4   1   0   0
  1.00000000000000000000E+00   5   2   0   0
  1.00000000000000000000E+00   6   2   0   0
  1.00000000000000000000E+00   7   3   0   0
  1.00000000000000000000E+00   8   3   0   0
  1.00000000000000000000E+00   9   4   0   0
  1.00000000000000000000E+00  10   4   0   0
  0.00000000000000000000E+00   0   0   0   0
